##File Type: Far field
##File Format: 7
##Source: bow_tie_antenna
##Date: 2020-08-04 13:51:49  
** File exported by Altair Feko - Solver (seq) Version 2019.3-660 from 2020-02-04

#Request Name: willieveldA
#Frequency:   2.99792458E+008
#Coordinate System: Spherical
#No. of Theta Samples: 10
#No. of Phi Samples: 10
#Result Type: Directivity
#No. of Header Lines: 1
#       "Theta"             "Phi"           "Re(Etheta)"       "Im(Etheta)"        "Re(Ephi)"         "Im(Ephi)"   "Directivity(Theta)" "Directivity(Phi)" "Directivity(Total)"
    0.00000000E+000    0.00000000E+000   -9.99125995E-006    3.45333112E-006   -3.95446846E-001   -2.56552767E-001   -9.07521591E+001    2.23272794E+000    2.23272794E+000
    5.00000000E+000    0.00000000E+000   -9.97912299E-006    3.38586607E-006   -3.93929414E-001   -2.58658993E-001   -9.07795966E+001    2.23052514E+000    2.23052514E+000
    1.00000000E+001    0.00000000E+000   -9.90421506E-006    3.29407482E-006   -3.92202450E-001   -2.60629665E-001   -9.08626150E+001    2.22398338E+000    2.22398338E+000
    1.50000000E+001    0.00000000E+000   -9.76526886E-006    3.17962833E-006   -3.90288891E-001   -2.62450707E-001   -9.10033538E+001    2.21330059E+000    2.21330060E+000
    2.00000000E+001    0.00000000E+000   -9.56068890E-006    3.04433445E-006   -3.88217912E-001   -2.64112287E-001   -9.12054590E+001    2.19880009E+000    2.19880009E+000
    2.50000000E+001    0.00000000E+000   -9.28873527E-006    2.89011267E-006   -3.86024125E-001   -2.65608838E-001   -9.14742220E+001    2.18092088E+000    2.18092088E+000
    3.00000000E+001    0.00000000E+000   -8.94775460E-006    2.71896192E-006   -3.83746595E-001   -2.66938918E-001   -9.18168146E+001    2.16020455E+000    2.16020455E+000
    3.50000000E+001    0.00000000E+000   -8.53644098E-006    2.53292135E-006   -3.81427734E-001   -2.68104914E-001   -9.22426710E+001    2.13727899E+000    2.13727899E+000
    4.00000000E+001    0.00000000E+000   -8.05410685E-006    2.33402560E-006   -3.79112110E-001   -2.69112600E-001   -9.27641035E+001    2.11283951E+000    2.11283951E+000
    4.50000000E+001    0.00000000E+000   -7.50094370E-006    2.12425705E-006   -3.76845222E-001   -2.69970588E-001   -9.33972986E+001    2.08762787E+000    2.08762787E+000
    0.00000000E+000    5.00000000E+000   -3.44754168E-002   -2.23566068E-002   -3.93941181E-001   -2.55576808E-001   -1.89599823E+001    2.19960198E+000    2.23272794E+000
    5.00000000E+000    5.00000000E+000   -3.39491172E-002   -2.28080235E-002   -3.89641871E-001   -2.61864387E-001   -1.90003579E+001    2.19732829E+000    2.23016599E+000
    1.00000000E+001    5.00000000E+000   -3.31073335E-002   -2.30332360E-002   -3.85062640E-001   -2.67914405E-001   -1.91217886E+001    2.19057633E+000    2.22256142E+000
    1.50000000E+001    5.00000000E+000   -3.19731131E-002   -2.30197178E-002   -3.80256287E-001   -2.73676095E-001   -1.93252229E+001    2.17955128E+000    2.21015512E+000
    2.00000000E+001    5.00000000E+000   -3.05750178E-002   -2.27606775E-002   -3.75283883E-001   -2.79106647E-001   -1.96123664E+001    2.16458822E+000    2.19333906E+000
    2.50000000E+001    5.00000000E+000   -2.89456453E-002   -2.22552495E-002   -3.70213175E-001   -2.84171800E-001   -1.99858855E+001    2.14614186E+000    2.17264247E+000
    3.00000000E+001    5.00000000E+000   -2.71199804E-002   -2.15083254E-002   -3.65116800E-001   -2.88846049E-001   -2.04497286E+001    2.12477279E+000    2.14871347E+000
    3.50000000E+001    5.00000000E+000   -2.51337048E-002   -2.05300574E-002   -3.60070381E-001   -2.93112485E-001   -2.10096120E+001    2.10113040E+000    2.12229701E+000
    4.00000000E+001    5.00000000E+000   -2.30215840E-002   -1.93350912E-002   -3.55150605E-001   -2.96962273E-001   -2.16737532E+001    2.07593316E+000    2.09421002E+000
    4.50000000E+001    5.00000000E+000   -2.08160377E-002   -1.79416116E-002   -3.50433359E-001   -3.00393806E-001   -2.24539936E+001    2.04994675E+000    2.06531490E+000
    0.00000000E+000    1.00000000E+001   -6.86784637E-002   -4.45465197E-002   -3.89437385E-001   -2.52655754E-001   -1.29731879E+001    2.09973599E+000    2.23272794E+000
    5.00000000E+000    1.00000000E+001   -6.71428327E-002   -4.61587680E-002   -3.82413037E-001   -2.62932481E-001   -1.30137738E+001    2.09725269E+000    2.22910040E+000
    1.00000000E+001    1.00000000E+001   -6.49626175E-002   -4.72723003E-002   -3.74946388E-001   -2.72805917E-001   -1.31358283E+001    2.08987907E+000    2.21834106E+000
    1.50000000E+001    1.00000000E+001   -6.22043327E-002   -4.78393705E-002   -3.67127517E-001   -2.82188113E-001   -1.33402785E+001    2.07784163E+000    2.20081445E+000
    2.00000000E+001    1.00000000E+001   -5.89462760E-002   -4.78279994E-002   -3.59059459E-001   -2.91005599E-001   -1.36287954E+001    2.06150985E+000    2.17711068E+000
    2.50000000E+001    1.00000000E+001   -5.52742786E-002   -4.72230489E-002   -3.50855206E-001   -2.99200613E-001   -1.40039989E+001    2.04138460E+000    2.14802046E+000
    3.00000000E+001    1.00000000E+001   -5.12771639E-002   -4.60261618E-002   -3.42634431E-001   -3.06731573E-001   -1.44697812E+001    2.01808230E+000    2.11450250E+000
    3.50000000E+001    1.00000000E+001   -4.70422811E-002   -4.42546363E-002   -3.34520114E-001   -3.13572792E-001   -1.50317949E+001    1.99231567E+000    2.07764528E+000
    4.00000000E+001    1.00000000E+001   -4.26514446E-002   -4.19394100E-002   -3.26635248E-001   -3.19713461E-001   -1.56981884E+001    1.96487146E+000    2.03862543E+000
    4.50000000E+001    1.00000000E+001   -3.81775403E-002   -3.91224045E-002   -3.19099783E-001   -3.25156011E-001   -1.64807318E+001    1.93658612E+000    1.99866514E+000
    0.00000000E+000    1.50000000E+001   -1.02358826E-001   -6.63974066E-002   -3.81969736E-001   -2.47811838E-001   -9.50690028E+000    1.93157140E+000    2.23272794E+000
    5.00000000E+000    1.50000000E+001   -9.93454717E-002   -6.98340614E-002   -3.72364327E-001   -2.61766251E-001   -9.54782814E+000    1.92874608E+000    2.22736040E+000
    1.00000000E+001    1.50000000E+001   -9.53249144E-002   -7.24394150E-002   -3.62077232E-001   -2.75094673E-001   -9.67089698E+000    1.92035797E+000    2.21144521E+000
    1.50000000E+001    1.50000000E+001   -9.04310457E-002   -7.41091200E-002   -3.51244052E-001   -2.87669637E-001   -9.87699963E+000    1.90666772E+000    2.18553627E+000
    2.00000000E+001    1.50000000E+001   -8.48179103E-002   -7.47706065E-002   -3.40020211E-001   -2.99387848E-001   -1.01677516E+001    1.88810018E+000    2.15052905E+000
    2.50000000E+001    1.50000000E+001   -7.86507841E-002   -7.43855971E-002   -3.28575735E-001   -3.10172265E-001   -1.05456984E+001    1.86523044E+000    2.10762091E+000
    3.00000000E+001    1.50000000E+001   -7.20968663E-002   -7.29500908E-002   -3.17089661E-001   -3.19972811E-001   -1.10146416E+001    1.83876510E+000    2.05825913E+000
    3.50000000E+001    1.50000000E+001   -6.53163890E-002   -7.04919821E-002   -3.05744399E-001   -3.28765677E-001   -1.15801307E+001    1.80951937E+000    2.00408000E+000
    4.00000000E+001    1.50000000E+001   -5.84548379E-002   -6.70667252E-002   -2.94720404E-001   -3.36551354E-001   -1.22502025E+001    1.77839100E+000    1.94684261E+000
    4.50000000E+001    1.50000000E+001   -5.16367906E-002   -6.27516298E-002   -2.84191425E-001   -3.43351554E-001   -1.30365114E+001    1.74633188E+000    1.88836158E+000
    0.00000000E+000    2.00000000E+001   -1.35260176E-001   -8.77429692E-002   -3.71595066E-001   -2.41081923E-001   -7.08590917E+000    1.69240066E+000    2.23272794E+000
    5.00000000E+000    2.00000000E+001   -1.30331095E-001   -9.36022532E-002   -3.59637237E-001   -2.58294202E-001   -7.12730083E+000    1.68911128E+000    2.22499833E+000
    1.00000000E+001    2.00000000E+001   -1.23983217E-001   -9.82263919E-002   -3.46702019E-001   -2.74612851E-001   -7.25174578E+000    1.67934627E+000    2.20207520E+000
    1.50000000E+001    2.00000000E+001   -1.16444856E-001   -1.01434153E-001   -3.32978693E-001   -2.89867696E-001   -7.46009154E+000    1.66341151E+000    2.16474446E+000
    2.00000000E+001    2.00000000E+001   -1.07975928E-001   -1.03099831E-001   -3.18684868E-001   -3.03925702E-001   -7.75388004E+000    1.64180528E+000    2.11427929E+000
    2.50000000E+001    2.00000000E+001   -9.88517931E-002   -1.03157661E-001   -3.04058097E-001   -3.16694188E-001   -8.13555768E+000    1.61520146E+000    2.05238697E+000
    3.00000000E+001    2.00000000E+001   -8.93466861E-002   -1.01601436E-001   -2.89346996E-001   -3.28121720E-001   -8.60880518E+000    1.58442704E+000    1.98113832E+000
    3.50000000E+001    2.00000000E+001   -7.97182575E-002   -9.84797016E-002   -2.74802498E-001   -3.38196695E-001   -9.17903405E+000    1.55043475E+000    1.90288338E+000
    4.00000000E+001    2.00000000E+001   -7.01945005E-002   -9.38873780E-002   -2.60669822E-001   -3.46943837E-001   -9.85413088E+000    1.51427203E+000    1.82015827E+000
    4.50000000E+001    2.00000000E+001   -6.09639269E-002   -8.79549909E-002   -2.47181594E-001   -3.54418968E-001   -1.06455928E+001    1.47704739E+000    1.73558821E+000
    0.00000000E+000    2.50000000E+001   -1.67132114E-001   -1.08420755E-001   -3.58392334E-001   -2.32517230E-001   -5.24804992E+000    1.37818630E+000    2.23272794E+000
    5.00000000E+000    2.50000000E+001   -1.59894961E-001   -1.17218462E-001   -3.44389918E-001   -2.52473185E-001   -5.29001327E+000    1.37432486E+000    2.22208534E+000
    1.00000000E+001    2.50000000E+001   -1.50768548E-001   -1.24298689E-001   -3.29082858E-001   -2.71239629E-001   -5.41615507E+000    1.36286188E+000    2.19050563E+000
    1.50000000E+001    2.50000000E+001   -1.40105037E-001   -1.29384177E-001   -3.12720995E-001   -2.88600843E-001   -5.62726875E+000    1.34415725E+000    2.13902073E+000
    2.00000000E+001    2.50000000E+001   -1.28303295E-001   -1.32286306E-001   -2.95592060E-001   -3.04394247E-001   -5.92480821E+000    1.31879710E+000    2.06930953E+000
    2.50000000E+001    2.50000000E+001   -1.15782287E-001   -1.32911781E-001   -2.78009100E-001   -3.18514986E-001   -6.31110090E+000    1.28757400E+000    1.98363757E+000
    3.00000000E+001    2.50000000E+001   -1.02954169E-001   -1.31261117E-001   -2.60297319E-001   -3.30916915E-001   -6.78968183E+000    1.25146024E+000    1.88477502E+000
    3.50000000E+001    2.50000000E+001   -9.01997262E-002   -1.27419667E-001   -2.42781384E-001   -3.41610051E-001   -7.36579503E+000    1.21157557E+000    1.77589596E+000
    4.00000000E+001    2.50000000E+001   -7.78482789E-002   -1.21542824E-001   -2.25774084E-001   -3.50654901E-001   -8.04714355E+000    1.16915045E+000    1.66046285E+000
    4.50000000E+001    2.50000000E+001   -6.61633911E-002   -1.13837523E-001   -2.09567024E-001   -3.58154293E-001   -8.84503109E+000    1.12548643E+000    1.54210180E+000
    0.00000000E+000    3.00000000E+001   -1.97732076E-001   -1.28273393E-001   -3.42462019E-001   -2.22182941E-001   -3.78766445E+000    9.83271398E-001    2.23272794E+000
    5.00000000E+000    3.00000000E+001   -1.87854371E-001   -1.40428633E-001   -3.26793663E-001   -2.44290578E-001   -3.83029008E+000    9.78747228E-001    2.21870924E+000
    1.00000000E+001    3.00000000E+001   -1.75554467E-001   -1.50303434E-001   -3.09488840E-001   -2.64904906E-001   -3.95839848E+000    9.65316302E-001    2.17707721E+000
    1.50000000E+001    3.00000000E+001   -1.61338974E-001   -1.57506830E-001   -2.90862245E-001   -2.83763404E-001   -4.17272286E+000    9.43398605E-001    2.10909260E+000
    2.00000000E+001    3.00000000E+001   -1.45780138E-001   -1.61780242E-001   -2.71276422E-001   -3.00675054E-001   -4.47461885E+000    9.13678422E-001    2.01681855E+000
    2.50000000E+001    3.00000000E+001   -1.29475000E-001   -1.63006694E-001   -2.51124047E-001   -3.15526459E-001   -4.86628054E+000    8.77081454E-001    1.90306309E+000
    3.00000000E+001    3.00000000E+001   -1.13004619E-001   -1.61207034E-001   -2.30809608E-001   -3.28282730E-001   -5.35107859E+000    8.34744084E-001    1.77129870E+000
    3.50000000E+001    3.00000000E+001   -9.68976219E-002   -1.56524531E-001   -2.10732043E-001   -3.38983345E-001   -5.93406683E+000    7.87975993E-001    1.62555928E+000
    4.00000000E+001    3.00000000E+001   -8.16013707E-002   -1.49200667E-001   -1.91269649E-001   -3.47733649E-001   -6.62273810E+000    7.38217593E-001    1.47031642E+000
    4.50000000E+001    3.00000000E+001   -6.74626506E-002   -1.39545709E-001   -1.72768221E-001   -3.54693003E-001   -7.42817247E+000    6.86993892E-001    1.31033785E+000
    0.00000000E+000    3.50000000E+001   -2.26827177E-001   -1.47149793E-001   -3.23925362E-001   -2.10157705E-001   -2.59527492E+000    4.99934433E-001    2.23272794E+000
    5.00000000E+000    3.50000000E+001   -2.14048883E-001   -1.62973911E-001   -3.07029433E-001   -2.33765795E-001   -2.63863336E+000    4.94676938E-001    2.21497198E+000
    1.00000000E+001    3.50000000E+001   -1.98255890E-001   -1.75877778E-001   -2.88187920E-001   -2.55591417E-001   -2.76891881E+000    4.79067364E-001    2.16218768E+000
    1.50000000E+001    3.50000000E+001   -1.80139381E-001   -1.85341097E-001   -2.67780815E-001   -2.75326633E-001   -2.98680098E+000    4.53589149E-001    2.07581754E+000
    2.00000000E+001    3.50000000E+001   -1.60478729E-001   -1.91030998E-001   -2.46245587E-001   -2.92754643E-001   -3.29353139E+000    4.19030569E-001    1.95823791E+000
    2.50000000E+001    3.50000000E+001   -1.40082248E-001   -1.92813927E-001   -2.24053623E-001   -3.07757446E-001   -3.69116213E+000    3.76459225E-001    1.81271584E+000
    3.00000000E+001    3.50000000E+001   -1.19728732E-001   -1.90748122E-001   -2.01686122E-001   -3.20316382E-001   -4.18288771E+000    3.27187628E-001    1.64334605E+000
    3.50000000E+001    3.50000000E+001   -1.00116281E-001   -1.85059074E-001   -1.79611608E-001   -3.30505925E-001   -4.77355630E+000    2.72731130E-001    1.45496586E+000
    4.00000000E+001    3.50000000E+001   -8.18231773E-002   -1.76102478E-001   -1.58266909E-001   -3.38481765E-001   -5.47043129E+000    2.14759723E-001    1.25304599E+000
    4.50000000E+001    3.50000000E+001   -6.52833821E-002   -1.64320313E-001   -1.38042813E-001   -3.44464693E-001   -6.28434599E+000    1.55045407E-001    1.04355579E+000
    0.00000000E+000    4.00000000E+001   -2.54195987E-001   -1.64906295E-001   -3.02923437E-001   -1.96533042E-001   -1.60577933E+000   -8.22932658E-002    2.23272794E+000
    5.00000000E+000    4.00000000E+001   -2.38339926E-001   -1.84595187E-001   -2.85284556E-001   -2.20951078E-001   -1.64991887E+000   -8.83324577E-002    2.21098659E+000
    1.00000000E+001    4.00000000E+001   -2.18826298E-001   -2.00657241E-001   -2.65439365E-001   -2.43335265E-001   -1.78252606E+000   -1.06265629E-001    2.14628099E+000
    1.50000000E+001    4.00000000E+001   -1.96558498E-001   -2.12430024E-001   -2.43828711E-001   -2.63337022E-001   -2.00420648E+000   -1.35545247E-001    2.04016304E+000
    2.00000000E+001    4.00000000E+001   -1.72553755E-001   -2.19504735E-001   -2.20959465E-001   -2.80718320E-001   -2.31610609E+000   -1.75277512E-001    1.89520738E+000
    2.50000000E+001    4.00000000E+001   -1.47861151E-001   -2.21740717E-001   -1.97374830E-001   -2.95360749E-001   -2.72013214E+000   -2.24249895E-001    1.71499188E+000
    3.00000000E+001    4.00000000E+001   -1.23481696E-001   -2.19252477E-001   -1.73624238E-001   -3.07265420E-001   -3.21929796E+000   -2.80968489E-001    1.50406703E+000
    3.50000000E+001    4.00000000E+001   -1.00299729E-001   -2.12373010E-001   -1.50235704E-001   -3.16544311E-001   -3.81823825E+000   -3.43704015E-001    1.26791040E+000
    4.00000000E+001    4.00000000E+001   -7.90322938E-002   -2.01600273E-001   -1.27692992E-001   -3.23404544E-001   -4.52397560E+000   -4.10545048E-001    1.01286110E+000
    4.50000000E+001    4.00000000E+001   -6.01997020E-002   -1.87535164E-001   -1.06419133E-001   -3.28127702E-001   -5.34708120E+000   -4.79456750E-001    7.46027552E-001
    0.00000000E+000    4.50000000E+001   -2.79630211E-001   -1.81407760E-001   -2.79616082E-001   -1.81412643E-001   -7.77452201E-001   -7.77691832E-001    2.23272794E+000
    5.00000000E+000    4.50000000E+001   -2.60609859E-001   -2.05037720E-001   -2.61749709E-001   -2.05931574E-001   -8.22397393E-001   -7.84537404E-001    2.20687381E+000
    1.00000000E+001    4.50000000E+001   -2.37253503E-001   -2.24283760E-001   -2.41487096E-001   -2.28224987E-001   -9.57400717E-001   -8.04868884E-001    2.12983477E+000
    1.50000000E+001    4.50000000E+001   -2.10699681E-001   -2.38332201E-001   -2.19320011E-001   -2.47912160E-001   -1.18300541E+000   -8.38076452E-001    2.00318253E+000
    2.00000000E+001    4.50000000E+001   -1.82228657E-001   -2.46699244E-001   -1.95812960E-001   -2.64740340E-001   -1.50025445E+000   -8.83163237E-001    1.82954226E+000
    2.50000000E+001    4.50000000E+001   -1.53153659E-001   -2.49247917E-001   -1.71567640E-001   -2.78594912E-001   -1.91091272E+000   -9.38774093E-001    1.61260078E+000
    3.00000000E+001    4.50000000E+001   -1.24716007E-001   -2.46167769E-001   -1.47187195E-001   -2.89498408E-001   -2.41781397E+000   -1.00323494E+000    1.35711708E+000
    3.50000000E+001    4.50000000E+001   -9.79968178E-002   -2.37923050E-001   -1.23243847E-001   -2.97599215E-001   -3.02537900E+000   -1.07460169E+000    1.06893301E+000
    4.00000000E+001    4.50000000E+001   -7.38541004E-002   -2.25179181E-001   -1.00252769E-001   -3.03151992E-001   -3.74038626E+000   -1.15071757E+000    7.54979582E-001
    4.50000000E+001    4.50000000E+001   -5.28890720E-002   -2.08719266E-001   -7.86540148E-002   -3.06492521E-001   -4.57313771E+000   -1.22927725E+000    4.23270333E-001
