##File Type: Far field
##File Format: 4
##Source: strip_dipole
##Date: 2018-05-27 13:17:39  
** File exported by FEKO kernel version 2017.2.3-538

#Frequency:   2.99792458E+008
#Coordinate System: Spherical
#No. of Theta Samples: 1
#No. of Phi Samples: 91
#Result Type: Directivity
#No. of Header Lines: 1
#       "Theta"             "Phi"           "Re(Etheta)"       "Im(Etheta)"        "Re(Ephi)"         "Im(Ephi)"   "Directivity(Theta)" "Directivity(Phi)" "Directivity(Total)"
    9.00000000E+001    0.00000000E+000   -1.53016441E-020   -9.44811615E-020    2.49096251E-001   -7.89795537E-001   -3.76643548E+002    2.09924257E+000    2.09924257E+000
    9.00000000E+001    1.00000000E+000    2.73946114E-019   -9.31941647E-019    2.68450644E-001   -7.83231460E-001   -3.56515193E+002    2.09728753E+000    2.09728753E+000
    9.00000000E+001    2.00000000E+000    6.04069217E-019   -1.75407169E-018    2.87493125E-001   -7.75867172E-001   -3.50895208E+002    2.09161310E+000    2.09161310E+000
    9.00000000E+001    3.00000000E+000    9.74167469E-019   -2.55885041E-018    3.06182605E-001   -7.67720694E-001   -3.47514185E+002    2.08221882E+000    2.08221882E+000
    9.00000000E+001    4.00000000E+000    1.38321749E-018   -3.34432044E-018    3.24479184E-001   -7.58812386E-001   -3.45090923E+002    2.06910380E+000    2.06910380E+000
    9.00000000E+001    5.00000000E+000    1.83007765E-018   -4.10859627E-018    3.42344306E-001   -7.49164860E-001   -3.43202992E+002    2.05226671E+000    2.05226671E+000
    9.00000000E+001    6.00000000E+000    2.31349371E-018   -4.84987227E-018    3.59740900E-001   -7.38802877E-001   -3.41657900E+002    2.03170577E+000    2.03170577E+000
    9.00000000E+001    7.00000000E+000    2.83210491E-018   -5.56643015E-018    3.76633525E-001   -7.27753233E-001   -3.40351586E+002    2.00741871E+000    2.00741871E+000
    9.00000000E+001    8.00000000E+000    3.38445071E-018   -6.25664595E-018    3.92988488E-001   -7.16044641E-001   -3.39221381E+002    1.97940276E+000    1.97940276E+000
    9.00000000E+001    9.00000000E+000    3.96897793E-018   -6.91899644E-018    4.08773969E-001   -7.03707594E-001   -3.38226598E+002    1.94765460E+000    1.94765460E+000
    9.00000000E+001    1.00000000E+001    4.58404837E-018   -7.55206493E-018    4.23960124E-001   -6.90774229E-001   -3.37339324E+002    1.91217035E+000    1.91217035E+000
    9.00000000E+001    1.10000000E+001    5.22794683E-018   -8.15454643E-018    4.38519178E-001   -6.77278184E-001   -3.36539569E+002    1.87294550E+000    1.87294550E+000
    9.00000000E+001    1.20000000E+001    5.89888934E-018   -8.72525222E-018    4.52425514E-001   -6.63254438E-001   -3.35812527E+002    1.82997486E+000    1.82997486E+000
    9.00000000E+001    1.30000000E+001    6.59503181E-018   -9.26311362E-018    4.65655739E-001   -6.48739162E-001   -3.35146921E+002    1.78325251E+000    1.78325251E+000
    9.00000000E+001    1.40000000E+001    7.31447874E-018   -9.76718523E-018    4.78188745E-001   -6.33769554E-001   -3.34533964E+002    1.73277177E+000    1.73277177E+000
    9.00000000E+001    1.50000000E+001    8.05529221E-018   -1.02366473E-017    4.90005754E-001   -6.18383674E-001   -3.33966675E+002    1.67852506E+000    1.67852506E+000
    9.00000000E+001    1.60000000E+001    8.81550077E-018   -1.06708075E-017    5.01090350E-001   -6.02620283E-001   -3.33439413E+002    1.62050390E+000    1.62050390E+000
    9.00000000E+001    1.70000000E+001    9.59310857E-018   -1.10691020E-017    5.11428502E-001   -5.86518673E-001   -3.32947556E+002    1.55869877E+000    1.55869877E+000
    9.00000000E+001    1.80000000E+001    1.03861043E-017   -1.14310958E-017    5.21008569E-001   -5.70118501E-001   -3.32487264E+002    1.49309905E+000    1.49309905E+000
    9.00000000E+001    1.90000000E+001    1.11924700E-017   -1.17564823E-017    5.29821297E-001   -5.53459627E-001   -3.32055317E+002    1.42369294E+000    1.42369294E+000
    9.00000000E+001    2.00000000E+001    1.20101899E-017   -1.20450825E-017    5.37859802E-001   -5.36581952E-001   -3.31648982E+002    1.35046727E+000    1.35046727E+000
    9.00000000E+001    2.10000000E+001    1.28372589E-017   -1.22968430E-017    5.45119540E-001   -5.19525257E-001   -3.31265922E+002    1.27340750E+000    1.27340750E+000
    9.00000000E+001    2.20000000E+001    1.36716910E-017   -1.25118343E-017    5.51598267E-001   -5.02329049E-001   -3.30904120E+002    1.19249750E+000    1.19249750E+000
    9.00000000E+001    2.30000000E+001    1.45115270E-017   -1.26902474E-017    5.57295992E-001   -4.85032413E-001   -3.30561826E+002    1.10771945E+000    1.10771945E+000
    9.00000000E+001    2.40000000E+001    1.53548421E-017   -1.28323905E-017    5.62214909E-001   -4.67673871E-001   -3.30237506E+002    1.01905369E+000    1.01905369E+000
    9.00000000E+001    2.50000000E+001    1.61997538E-017   -1.29386854E-017    5.66359335E-001   -4.50291237E-001   -3.29929812E+002    9.26478579E-001    9.26478579E-001
    9.00000000E+001    2.60000000E+001    1.70444277E-017   -1.30096629E-017    5.69735623E-001   -4.32921498E-001   -3.29637548E+002    8.29970275E-001    8.29970275E-001
    9.00000000E+001    2.70000000E+001    1.78870848E-017   -1.30459577E-017    5.72352080E-001   -4.15600682E-001   -3.29359652E+002    7.29502588E-001    7.29502588E-001
    9.00000000E+001    2.80000000E+001    1.87260068E-017   -1.30483038E-017    5.74218871E-001   -3.98363754E-001   -3.29095173E+002    6.25046758E-001    6.25046758E-001
    9.00000000E+001    2.90000000E+001    1.95595418E-017   -1.30175284E-017    5.75347916E-001   -3.81244503E-001   -3.28843256E+002    5.16571243E-001    5.16571243E-001
    9.00000000E+001    3.00000000E+001    2.03861090E-017   -1.29545464E-017    5.75752786E-001   -3.64275453E-001   -3.28603130E+002    4.04041475E-001    4.04041475E-001
    9.00000000E+001    3.10000000E+001    2.12042031E-017   -1.28603541E-017    5.75448590E-001   -3.47487771E-001   -3.28374096E+002    2.87419610E-001    2.87419610E-001
    9.00000000E+001    3.20000000E+001    2.20123981E-017   -1.27360229E-017    5.74451859E-001   -3.30911194E-001   -3.28155519E+002    1.66664241E-001    1.66664241E-001
    9.00000000E+001    3.30000000E+001    2.28093506E-017   -1.25826930E-017    5.72780429E-001   -3.14573963E-001   -3.27946818E+002    4.17300975E-002    4.17300975E-002
    9.00000000E+001    3.40000000E+001    2.35938025E-017   -1.24015670E-017    5.70453319E-001   -2.98502758E-001   -3.27747461E+002   -8.74322813E-002   -8.74322813E-002
    9.00000000E+001    3.50000000E+001    2.43645830E-017   -1.21939028E-017    5.67490610E-001   -2.82722659E-001   -3.27556960E+002   -2.20876909E-001   -2.20876909E-001
    9.00000000E+001    3.60000000E+001    2.51206104E-017   -1.19610075E-017    5.63913320E-001   -2.67257101E-001   -3.27374865E+002   -3.58662739E-001   -3.58662739E-001
    9.00000000E+001    3.70000000E+001    2.58608930E-017   -1.17042304E-017    5.59743283E-001   -2.52127847E-001   -3.27200760E+002   -5.00854093E-001   -5.00854093E-001
    9.00000000E+001    3.80000000E+001    2.65845299E-017   -1.14249567E-017    5.55003025E-001   -2.37354968E-001   -3.27034257E+002   -6.47521122E-001   -6.47521122E-001
    9.00000000E+001    3.90000000E+001    2.72907111E-017   -1.11246011E-017    5.49715647E-001   -2.22956830E-001   -3.26875000E+002   -7.98740315E-001   -7.98740315E-001
    9.00000000E+001    4.00000000E+001    2.79787168E-017   -1.08046015E-017    5.43904701E-001   -2.08950093E-001   -3.26722653E+002   -9.54595058E-001   -9.54595058E-001
    9.00000000E+001    4.10000000E+001    2.86479168E-017   -1.04664128E-017    5.37594081E-001   -1.95349713E-001   -3.26576905E+002   -1.11517624E+000   -1.11517624E+000
    9.00000000E+001    4.20000000E+001    2.92977694E-017   -1.01115009E-017    5.30807904E-001   -1.82168956E-001   -3.26437463E+002   -1.28058293E+000   -1.28058293E+000
    9.00000000E+001    4.30000000E+001    2.99278193E-017   -9.74133726E-018    5.23570408E-001   -1.69419418E-001   -3.26304053E+002   -1.45092311E+000   -1.45092311E+000
    9.00000000E+001    4.40000000E+001    3.05376960E-017   -9.35739352E-018    5.15905842E-001   -1.57111049E-001   -3.26176419E+002   -1.62631449E+000   -1.62631449E+000
    9.00000000E+001    4.50000000E+001    3.11271110E-017   -8.96113605E-018    5.07838371E-001   -1.45252188E-001   -3.26054318E+002   -1.80688542E+000   -1.80688542E+000
    9.00000000E+001    4.60000000E+001    3.16958554E-017   -8.55402129E-018    4.99391978E-001   -1.33849598E-001   -3.25937521E+002   -1.99277587E+000   -1.99277587E+000
    9.00000000E+001    4.70000000E+001    3.22437970E-017   -8.13749117E-018    4.90590378E-001   -1.22908511E-001   -3.25825812E+002   -2.18413858E+000   -2.18413858E+000
    9.00000000E+001    4.80000000E+001    3.27708766E-017   -7.71296885E-018    4.81456933E-001   -1.12432672E-001   -3.25718987E+002   -2.38114024E+000   -2.38114024E+000
    9.00000000E+001    4.90000000E+001    3.32771051E-017   -7.28185479E-018    4.72014570E-001   -1.02424396E-001   -3.25616852E+002   -2.58396294E+000   -2.58396294E+000
    9.00000000E+001    5.00000000E+001    3.37625595E-017   -6.84552322E-018    4.62285718E-001   -9.28846150E-002   -3.25519225E+002   -2.79280566E+000   -2.79280566E+000
    9.00000000E+001    5.10000000E+001    3.42273791E-017   -6.40531883E-018    4.52292234E-001   -8.38129425E-002   -3.25425930E+002   -3.00788607E+000   -3.00788607E+000
    9.00000000E+001    5.20000000E+001    3.46717618E-017   -5.96255386E-018    4.42055347E-001   -7.52077287E-002   -3.25336802E+002   -3.22944243E+000   -3.22944243E+000
    9.00000000E+001    5.30000000E+001    3.50959599E-017   -5.51850553E-018    4.31595600E-001   -6.70661239E-002   -3.25251682E+002   -3.45773585E+000   -3.45773585E+000
    9.00000000E+001    5.40000000E+001    3.55002757E-017   -5.07441375E-018    4.20932809E-001   -5.93841406E-002   -3.25170422E+002   -3.69305282E+000   -3.69305282E+000
    9.00000000E+001    5.50000000E+001    3.58850579E-017   -4.63147918E-018    4.10086015E-001   -5.21567175E-002   -3.25092876E+002   -3.93570803E+000   -3.93570803E+000
    9.00000000E+001    5.60000000E+001    3.62506970E-017   -4.19086160E-018    3.99073450E-001   -4.53777836E-002   -3.25018910E+002   -4.18604766E+000   -4.18604766E+000
    9.00000000E+001    5.70000000E+001    3.65976211E-017   -3.75367854E-018    3.87912506E-001   -3.90403221E-002   -3.24948391E+002   -4.44445319E+000   -4.44445319E+000
    9.00000000E+001    5.80000000E+001    3.69262918E-017   -3.32100426E-018    3.76619711E-001   -3.31364338E-002   -3.24881196E+002   -4.71134563E+000   -4.71134563E+000
    9.00000000E+001    5.90000000E+001    3.72372002E-017   -2.89386893E-018    3.65210709E-001   -2.76574000E-002   -3.24817206E+002   -4.98719061E+000   -4.98719061E+000
    9.00000000E+001    6.00000000E+001    3.75308624E-017   -2.47325815E-018    3.53700247E-001   -2.25937442E-002   -3.24756306E+002   -5.27250417E+000   -5.27250417E+000
    9.00000000E+001    6.10000000E+001    3.78078159E-017   -2.06011262E-018    3.42102164E-001   -1.79352918E-002   -3.24698389E+002   -5.56785957E+000   -5.56785957E+000
    9.00000000E+001    6.20000000E+001    3.80686155E-017   -1.65532813E-018    3.30429385E-001   -1.36712289E-002   -3.24643351E+002   -5.87389523E+000   -5.87389523E+000
    9.00000000E+001    6.30000000E+001    3.83138292E-017   -1.25975569E-018    3.18693927E-001   -9.79015868E-003   -3.24591093E+002   -6.19132423E+000   -6.19132423E+000
    9.00000000E+001    6.40000000E+001    3.85440349E-017   -8.74201855E-019    3.06906895E-001   -6.28015521E-003   -3.24541519E+002   -6.52094543E+000   -6.52094543E+000
    9.00000000E+001    6.50000000E+001    3.87598167E-017   -4.99429290E-019    2.95078498E-001   -3.12881561E-003   -3.24494541E+002   -6.86365692E+000   -6.86365692E+000
    9.00000000E+001    6.60000000E+001    3.89617612E-017   -1.36157402E-019    2.83218055E-001   -3.23309174E-004   -3.24450072E+002   -7.22047207E+000   -7.22047207E+000
    9.00000000E+001    6.70000000E+001    3.91504543E-017    2.14936833E-019    2.71334015E-001    2.14957605E-003   -3.24408029E+002   -7.59253907E+000   -7.59253907E+000
    9.00000000E+001    6.80000000E+001    3.93264781E-017    5.53217948E-019    2.59433971E-001    4.30338941E-003   -3.24368336E+002   -7.98116479E+000   -7.98116479E+000
    9.00000000E+001    6.90000000E+001    3.94904079E-017    8.78090958E-019    2.47524687E-001    6.15197672E-003   -3.24330917E+002   -8.38784414E+000   -8.38784414E+000
    9.00000000E+001    7.00000000E+001    3.96428089E-017    1.18900024E-018    2.35612119E-001    7.70944211E-003   -3.24295703E+002   -8.81429663E+000   -8.81429663E+000
    9.00000000E+001    7.10000000E+001    3.97842340E-017    1.48542838E-018    2.23701442E-001    8.99011287E-003   -3.24262626E+002   -9.26251226E+000   -9.26251226E+000
    9.00000000E+001    7.20000000E+001    3.99152209E-017    1.76689491E-018    2.11797081E-001    1.00085071E-002   -3.24231624E+002   -9.73480985E+000   -9.73480985E+000
    9.00000000E+001    7.30000000E+001    4.00362898E-017    2.03295508E-018    1.99902742E-001    1.07793045E-002   -3.24202637E+002   -1.02339120E+001   -1.02339120E+001
    9.00000000E+001    7.40000000E+001    4.01479410E-017    2.28319858E-018    1.88021443E-001    1.13173193E-002   -3.24175608E+002   -1.07630426E+001   -1.07630426E+001
    9.00000000E+001    7.50000000E+001    4.02506530E-017    2.51724822E-018    1.76155555E-001    1.16374770E-002   -3.24150485E+002   -1.13260565E+001   -1.13260565E+001
    9.00000000E+001    7.60000000E+001    4.03448802E-017    2.73475872E-018    1.64306829E-001    1.17547927E-002   -3.24127219E+002   -1.19276127E+001   -1.19276127E+001
    9.00000000E+001    7.70000000E+001    4.04310515E-017    2.93541545E-018    1.52476443E-001    1.16843527E-002   -3.24105763E+002   -1.25734132E+001   -1.25734132E+001
    9.00000000E+001    7.80000000E+001    4.05095683E-017    3.11893316E-018    1.40665036E-001    1.14412985E-002   -3.24086076E+002   -1.32705361E+001   -1.32705361E+001
    9.00000000E+001    7.90000000E+001    4.05808031E-017    3.28505494E-018    1.28872748E-001    1.10408128E-002   -3.24068117E+002   -1.40279151E+001   -1.40279151E+001
    9.00000000E+001    8.00000000E+001    4.06450982E-017    3.43355100E-018    1.17099264E-001    1.04981076E-002   -3.24051851E+002   -1.48570468E+001   -1.48570468E+001
    9.00000000E+001    8.10000000E+001    4.07027644E-017    3.56421772E-018    1.05343853E-001    9.82841515E-003   -3.24037244E+002   -1.57730725E+001   -1.57730725E+001
    9.00000000E+001    8.20000000E+001    4.07540797E-017    3.67687667E-018    9.36054098E-002    9.04697980E-003   -3.24024267E+002   -1.67964972E+001   -1.67964972E+001
    9.00000000E+001    8.30000000E+001    4.07992885E-017    3.77137374E-018    8.18825008E-002    8.16905198E-003   -3.24012893E+002   -1.79560622E+001   -1.79560622E+001
    9.00000000E+001    8.40000000E+001    4.08386010E-017    3.84757837E-018    7.01734049E-002    7.20988369E-003   -3.24003100E+002   -1.92938404E+001   -1.92938404E+001
    9.00000000E+001    8.50000000E+001    4.08721919E-017    3.90538289E-018    5.84761584E-002    6.18472527E-003   -3.23994867E+002   -2.08750084E+001   -2.08750084E+001
    9.00000000E+001    8.60000000E+001    4.09002003E-017    3.94470194E-018    4.67885985E-002    5.10882325E-003   -3.23988176E+002   -2.28086239E+001   -2.28086239E+001
    9.00000000E+001    8.70000000E+001    4.09227291E-017    3.96547201E-018    3.51084081E-002    3.99741916E-003   -3.23983015E+002   -2.52987338E+001   -2.52987338E+001
    9.00000000E+001    8.80000000E+001    4.09398444E-017    3.96765110E-018    2.34331598E-002    2.86574912E-003   -3.23979373E+002   -2.88018073E+001   -2.88018073E+001
    9.00000000E+001    8.90000000E+001    4.09515757E-017    3.95121848E-018    1.17603611E-002    1.72904388E-003   -3.23977241E+002   -3.47616074E+001   -3.47616074E+001
    9.00000000E+001    9.00000000E+001    4.09579154E-017    3.91617459E-018    8.74983599E-005    6.02529176E-004   -3.23976616E+002   -6.05727014E+001   -6.05727014E+001
