##File Type: Far field
##File Format: 6
##Source: strip_dipole
##Date: 2022-08-25 21:03:36  
** File exported by Altair Feko - Solver (seq) Version 2019.1-338 from 2019-06-07

#Frequency:   2.00860947E+008
#Coordinate System: Spherical
#No. of Theta Samples: 1
#No. of Phi Samples: 91
#Result Type: Directivity
#No. of Header Lines: 1
#       "Theta"             "Phi"           "Re(Etheta)"       "Im(Etheta)"        "Re(Ephi)"         "Im(Ephi)"   "Directivity(Theta)" "Directivity(Phi)" "Directivity(Total)"
    9.00000000E+001    0.00000000E+000    3.45439088E-022   -8.67961361E-023    8.79510674E-002   -6.78962732E-003   -4.05944712E+002    1.93260867E+000    1.93260867E+000
    9.00000000E+001    1.00000000E+000    9.44504713E-020   -5.60853255E-021    8.80447990E-002   -5.17217226E-003   -3.57458649E+002    1.93101703E+000    1.93101703E+000
    9.00000000E+001    2.00000000E+000    1.88680508E-019   -7.67088462E-021    8.80765438E-002   -3.55276866E-003   -3.51456305E+002    1.92624736E+000    1.92624736E+000
    9.00000000E+001    3.00000000E+000    2.82894199E-019   -6.27474385E-021    8.80462908E-002   -1.93423238E-003   -3.47943402E+002    1.91829816E+000    1.91829816E+000
    9.00000000E+001    4.00000000E+000    3.76950529E-019   -1.42881270E-021    8.79541657E-002   -3.19373576E-004   -3.45452269E+002    1.90716696E+000    1.90716696E+000
    9.00000000E+001    5.00000000E+000    4.70709286E-019    6.85043642E-021    8.78004303E-002    1.28901143E-003   -3.43522044E+002    1.89285028E+000    1.89285028E+000
    9.00000000E+001    6.00000000E+000    5.64031517E-019    1.85388327E-020    8.75854809E-002    2.88814812E-003   -3.41947262E+002    1.87534359E+000    1.87534359E+000
    9.00000000E+001    7.00000000E+000    6.56779985E-019    3.36046086E-020    8.73098465E-002    4.47529171E-003   -3.40618266E+002    1.85464135E+000    1.85464135E+000
    9.00000000E+001    8.00000000E+000    7.48819614E-019    5.20085303E-020    8.69741871E-002    6.04773486E-003   -3.39469575E+002    1.83073693E+000    1.83073693E+000
    9.00000000E+001    9.00000000E+000    8.40017921E-019    7.37040574E-020    8.65792898E-002    7.60281525E-003   -3.38458941E+002    1.80362258E+000    1.80362258E+000
    9.00000000E+001    1.00000000E+001    9.30245438E-019    9.86375299E-020    8.61260666E-002    9.13792291E-003   -3.37557512E+002    1.77328944E+000    1.77328944E+000
    9.00000000E+001    1.10000000E+001    1.01937612E-018    1.26748381E-019    8.56155495E-002    1.06505072E-002   -3.36744700E+002    1.73972747E+000    1.73972747E+000
    9.00000000E+001    1.20000000E+001    1.10728771E-018    1.57969376E-019    8.50488874E-002    1.21380839E-002   -3.36005305E+002    1.70292537E+000    1.70292537E+000
    9.00000000E+001    1.30000000E+001    1.19386216E-018    1.92226874E-019    8.44273402E-002    1.35982411E-002   -3.35327778E+002    1.66287061E+000    1.66287061E+000
    9.00000000E+001    1.40000000E+001    1.27898593E-018    2.29441113E-019    8.37522749E-002    1.50286457E-002   -3.34703141E+002    1.61954929E+000    1.61954929E+000
    9.00000000E+001    1.50000000E+001    1.36255034E-018    2.69526510E-019    8.30251592E-002    1.64270494E-002   -3.34124273E+002    1.57294611E+000    1.57294611E+000
    9.00000000E+001    1.60000000E+001    1.44445185E-018    3.12391993E-019    8.22475566E-002    1.77912934E-002   -3.33585433E+002    1.52304432E+000    1.52304432E+000
    9.00000000E+001    1.70000000E+001    1.52459238E-018    3.57941330E-019    8.14211193E-002    1.91193137E-002   -3.33081921E+002    1.46982560E+000    1.46982560E+000
    9.00000000E+001    1.80000000E+001    1.60287953E-018    4.06073493E-019    8.05475830E-002    2.04091454E-002   -3.32609845E+002    1.41327002E+000    1.41327002E+000
    9.00000000E+001    1.90000000E+001    1.67922683E-018    4.56683020E-019    7.96287593E-002    2.16589273E-002   -3.32165940E+002    1.35335589E+000    1.35335589E+000
    9.00000000E+001    2.00000000E+001    1.75355392E-018    5.09660395E-019    7.86665294E-002    2.28669044E-002   -3.31747444E+002    1.29005971E+000    1.29005971E+000
    9.00000000E+001    2.10000000E+001    1.82578673E-018    5.64892436E-019    7.76628373E-002    2.40314321E-002   -3.31351997E+002    1.22335605E+000    1.22335605E+000
    9.00000000E+001    2.20000000E+001    1.89585765E-018    6.22262687E-019    7.66196822E-002    2.51509782E-002   -3.30977565E+002    1.15321741E+000    1.15321741E+000
    9.00000000E+001    2.30000000E+001    1.96370561E-018    6.81651816E-019    7.55391117E-002    2.62241253E-002   -3.30622388E+002    1.07961411E+000    1.07961411E+000
    9.00000000E+001    2.40000000E+001    2.02927620E-018    7.42938019E-019    7.44232144E-002    2.72495722E-002   -3.30284925E+002    1.00251415E+000    1.00251415E+000
    9.00000000E+001    2.50000000E+001    2.09252172E-018    8.05997417E-019    7.32741128E-002    2.82261356E-002   -3.29963825E+002    9.21883038E-001    9.21883038E-001
    9.00000000E+001    2.60000000E+001    2.15340121E-018    8.70704457E-019    7.20939556E-002    2.91527501E-002   -3.29657892E+002    8.37683656E-001    8.37683656E-001
    9.00000000E+001    2.70000000E+001    2.21188046E-018    9.36932312E-019    7.08849109E-002    3.00284693E-002   -3.29366067E+002    7.49876058E-001    7.49876058E-001
    9.00000000E+001    2.80000000E+001    2.26793202E-018    1.00455326E-018    6.96491591E-002    3.08524650E-002   -3.29087401E+002    6.58417289E-001    6.58417289E-001
    9.00000000E+001    2.90000000E+001    2.32153509E-018    1.07343910E-018    6.83888853E-002    3.16240267E-002   -3.28821048E+002    5.63261173E-001    5.63261173E-001
    9.00000000E+001    3.00000000E+001    2.37267553E-018    1.14346146E-018    6.71062731E-002    3.23425609E-002   -3.28566243E+002    4.64358087E-001    4.64358087E-001
    9.00000000E+001    3.10000000E+001    2.42134570E-018    1.21449225E-018    6.58034972E-002    3.30075890E-002   -3.28322297E+002    3.61654716E-001    3.61654716E-001
    9.00000000E+001    3.20000000E+001    2.46754439E-018    1.28640394E-018    6.44827175E-002    3.36187462E-002   -3.28088584E+002    2.55093782E-001    2.55093782E-001
    9.00000000E+001    3.30000000E+001    2.51127666E-018    1.35906994E-018    6.31460721E-002    3.41757788E-002   -3.27864534E+002    1.44613761E-001    1.44613761E-001
    9.00000000E+001    3.40000000E+001    2.55255368E-018    1.43236491E-018    6.17956717E-002    3.46785416E-002   -3.27649630E+002    3.01485606E-002    3.01485606E-002
    9.00000000E+001    3.50000000E+001    2.59139256E-018    1.50616507E-018    6.04335935E-002    3.51269954E-002   -3.27443394E+002   -8.83728202E-002   -8.83728202E-002
    9.00000000E+001    3.60000000E+001    2.62781617E-018    1.58034850E-018    5.90618755E-002    3.55212035E-002   -3.27245392E+002   -2.11026667E-001   -2.11026667E-001
    9.00000000E+001    3.70000000E+001    2.66185289E-018    1.65479540E-018    5.76825118E-002    3.58613286E-002   -3.27055220E+002   -3.37894961E-001   -3.37894961E-001
    9.00000000E+001    3.80000000E+001    2.69353643E-018    1.72938836E-018    5.62974467E-002    3.61476286E-002   -3.26872508E+002   -4.69065826E-001   -4.69065826E-001
    9.00000000E+001    3.90000000E+001    2.72290556E-018    1.80401260E-018    5.49085710E-002    3.63804533E-002   -3.26696913E+002   -6.04634017E-001   -6.04634017E-001
    9.00000000E+001    4.00000000E+001    2.75000386E-018    1.87855616E-018    5.35177169E-002    3.65602397E-002   -3.26528118E+002   -7.44701466E-001   -7.44701466E-001
    9.00000000E+001    4.10000000E+001    2.77487949E-018    1.95291012E-018    5.21266545E-002    3.66875082E-002   -3.26365826E+002   -8.89377867E-001   -8.89377867E-001
    9.00000000E+001    4.20000000E+001    2.79758487E-018    2.02696880E-018    5.07370877E-002    3.67628581E-002   -3.26209764E+002   -1.03878133E+000   -1.03878133E+000
    9.00000000E+001    4.30000000E+001    2.81817647E-018    2.10062986E-018    4.93506513E-002    3.67869628E-002   -3.26059674E+002   -1.19303911E+000   -1.19303911E+000
    9.00000000E+001    4.40000000E+001    2.83671445E-018    2.17379450E-018    4.79689077E-002    3.67605657E-002   -3.25915317E+002   -1.35228839E+000   -1.35228839E+000
    9.00000000E+001    4.50000000E+001    2.85326243E-018    2.24636751E-018    4.65933444E-002    3.66844750E-002   -3.25776468E+002   -1.51667716E+000   -1.51667716E+000
    9.00000000E+001    4.60000000E+001    2.86788719E-018    2.31825744E-018    4.52253715E-002    3.65595595E-002   -3.25642919E+002   -1.68636521E+000   -1.68636521E+000
    9.00000000E+001    4.70000000E+001    2.88065837E-018    2.38937662E-018    4.38663201E-002    3.63867436E-002   -3.25514470E+002   -1.86152523E+000   -1.86152523E+000
    9.00000000E+001    4.80000000E+001    2.89164815E-018    2.45964125E-018    4.25174403E-002    3.61670028E-002   -3.25390938E+002   -2.04234399E+000   -2.04234399E+000
    9.00000000E+001    4.90000000E+001    2.90093104E-018    2.52897142E-018    4.11798999E-002    3.59013590E-002   -3.25272146E+002   -2.22902375E+000   -2.22902375E+000
    9.00000000E+001    5.00000000E+001    2.90858350E-018    2.59729116E-018    3.98547836E-002    3.55908757E-002   -3.25157932E+002   -2.42178372E+000   -2.42178372E+000
    9.00000000E+001    5.10000000E+001    2.91468370E-018    2.66452841E-018    3.85430922E-002    3.52366539E-002   -3.25048139E+002   -2.62086186E+000   -2.62086186E+000
    9.00000000E+001    5.20000000E+001    2.91931125E-018    2.73061503E-018    3.72457420E-002    3.48398273E-002   -3.24942621E+002   -2.82651677E+000   -2.82651677E+000
    9.00000000E+001    5.30000000E+001    2.92254689E-018    2.79548678E-018    3.59635649E-002    3.44015584E-002   -3.24841240E+002   -3.03902989E+000   -3.03902989E+000
    9.00000000E+001    5.40000000E+001    2.92447224E-018    2.85908324E-018    3.46973086E-002    3.39230340E-002   -3.24743865E+002   -3.25870800E+000   -3.25870800E+000
    9.00000000E+001    5.50000000E+001    2.92516954E-018    2.92134781E-018    3.34476364E-002    3.34054613E-002   -3.24650372E+002   -3.48588609E+000   -3.48588609E+000
    9.00000000E+001    5.60000000E+001    2.92472137E-018    2.98222757E-018    3.22151286E-002    3.28500642E-002   -3.24560643E+002   -3.72093056E+000   -3.72093056E+000
    9.00000000E+001    5.70000000E+001    2.92321043E-018    3.04167327E-018    3.10002830E-002    3.22580793E-002   -3.24474566E+002   -3.96424300E+000   -3.96424300E+000
    9.00000000E+001    5.80000000E+001    2.92071926E-018    3.09963918E-018    2.98035157E-002    3.16307526E-002   -3.24392037E+002   -4.21626447E+000   -4.21626447E+000
    9.00000000E+001    5.90000000E+001    2.91733007E-018    3.15608303E-018    2.86251627E-002    3.09693364E-002   -3.24312956E+002   -4.47748052E+000   -4.47748052E+000
    9.00000000E+001    6.00000000E+001    2.91312445E-018    3.21096587E-018    2.74654815E-002    3.02750856E-002   -3.24237227E+002   -4.74842696E+000   -4.74842696E+000
    9.00000000E+001    6.10000000E+001    2.90818320E-018    3.26425193E-018    2.63246521E-002    2.95492554E-002   -3.24164759E+002   -5.02969667E+000   -5.02969667E+000
    9.00000000E+001    6.20000000E+001    2.90258611E-018    3.31590857E-018    2.52027794E-002    2.87930982E-002   -3.24095469E+002   -5.32194754E+000   -5.32194754E+000
    9.00000000E+001    6.30000000E+001    2.89641178E-018    3.36590604E-018    2.40998946E-002    2.80078614E-002   -3.24029274E+002   -5.62591192E+000   -5.62591192E+000
    9.00000000E+001    6.40000000E+001    2.88973741E-018    3.41421744E-018    2.30159576E-002    2.71947850E-002   -3.23966098E+002   -5.94240782E+000   -5.94240782E+000
    9.00000000E+001    6.50000000E+001    2.88263865E-018    3.46081851E-018    2.19508591E-002    2.63550993E-002   -3.23905868E+002   -6.27235223E+000   -6.27235223E+000
    9.00000000E+001    6.60000000E+001    2.87518943E-018    3.50568750E-018    2.09044225E-002    2.54900236E-002   -3.23848514E+002   -6.61677731E+000   -6.61677731E+000
    9.00000000E+001    6.70000000E+001    2.86746180E-018    3.54880504E-018    1.98764066E-002    2.46007641E-002   -3.23793972E+002   -6.97684988E+000   -6.97684988E+000
    9.00000000E+001    6.80000000E+001    2.85952581E-018    3.59015398E-018    1.88665079E-002    2.36885130E-002   -3.23742179E+002   -7.35389534E+000   -7.35389534E+000
    9.00000000E+001    6.90000000E+001    2.85144931E-018    3.62971923E-018    1.78743630E-002    2.27544468E-002   -3.23693076E+002   -7.74942706E+000   -7.74942706E+000
    9.00000000E+001    7.00000000E+001    2.84329792E-018    3.66748760E-018    1.68995511E-002    2.17997255E-002   -3.23646608E+002   -8.16518305E+000   -8.16518305E+000
    9.00000000E+001    7.10000000E+001    2.83513481E-018    3.70344770E-018    1.59415967E-002    2.08254920E-002   -3.23602724E+002   -8.60317194E+000   -8.60317194E+000
    9.00000000E+001    7.20000000E+001    2.82702067E-018    3.73758973E-018    1.49999720E-002    1.98328715E-002   -3.23561374E+002   -9.06573144E+000   -9.06573144E+000
    9.00000000E+001    7.30000000E+001    2.81901359E-018    3.76990537E-018    1.40741000E-002    1.88229708E-002   -3.23522512E+002   -9.55560358E+000   -9.55560358E+000
    9.00000000E+001    7.40000000E+001    2.81116894E-018    3.80038766E-018    1.31633564E-002    1.77968785E-002   -3.23486095E+002   -1.00760326E+001   -1.00760326E+001
    9.00000000E+001    7.50000000E+001    2.80353931E-018    3.82903080E-018    1.22670729E-002    1.67556649E-002   -3.23452082E+002   -1.06308948E+001   -1.06308948E+001
    9.00000000E+001    7.60000000E+001    2.79617442E-018    3.85583008E-018    1.13845396E-002    1.57003818E-002   -3.23420436E+002   -1.12248729E+001   -1.12248729E+001
    9.00000000E+001    7.70000000E+001    2.78912108E-018    3.88078172E-018    1.05150076E-002    1.46320635E-002   -3.23391122E+002   -1.18636951E+001   -1.18636951E+001
    9.00000000E+001    7.80000000E+001    2.78242307E-018    3.90388275E-018    9.65769201E-003    1.35517266E-002   -3.23364107E+002   -1.25544705E+001   -1.25544705E+001
    9.00000000E+001    7.90000000E+001    2.77612114E-018    3.92513092E-018    8.81177424E-003    1.24603710E-002   -3.23339361E+002   -1.33061706E+001   -1.33061706E+001
    9.00000000E+001    8.00000000E+001    2.77025293E-018    3.94452454E-018    7.97640484E-003    1.13589808E-002   -3.23316858E+002   -1.41303402E+001   -1.41303402E+001
    9.00000000E+001    8.10000000E+001    2.76485292E-018    3.96206245E-018    7.15070612E-003    1.02485246E-002   -3.23296573E+002   -1.50421856E+001   -1.50421856E+001
    9.00000000E+001    8.20000000E+001    2.75995241E-018    3.97774385E-018    6.33377482E-003    9.12995723E-003   -3.23278483E+002   -1.60623048E+001   -1.60623048E+001
    9.00000000E+001    8.30000000E+001    2.75557944E-018    3.99156829E-018    5.52468469E-003    8.00422031E-003   -3.23262568E+002   -1.72195808E+001   -1.72195808E+001
    9.00000000E+001    8.40000000E+001    2.75175882E-018    4.00353553E-018    4.72248911E-003    6.87224377E-003   -3.23248811E+002   -1.85563189E+001   -1.85563189E+001
    9.00000000E+001    8.50000000E+001    2.74851206E-018    4.01364551E-018    3.92622372E-003    5.73494702E-003   -3.23237198E+002   -2.01381112E+001   -2.01381112E+001
    9.00000000E+001    8.60000000E+001    2.74585736E-018    4.02189825E-018    3.13490898E-003    4.59324037E-003   -3.23227714E+002   -2.20748497E+001   -2.20748497E+001
    9.00000000E+001    8.70000000E+001    2.74380959E-018    4.02829387E-018    2.34755276E-003    3.44802645E-003   -3.23220351E+002   -2.45725535E+001   -2.45725535E+001
    9.00000000E+001    8.80000000E+001    2.74238028E-018    4.03283247E-018    1.56315291E-003    2.30020171E-003   -3.23215099E+002   -2.80937664E+001   -2.80937664E+001
    9.00000000E+001    8.90000000E+001    2.74157758E-018    4.03551413E-018    7.80699792E-004    1.15065795E-003   -3.23211953E+002   -3.41145636E+001   -3.41145636E+001
    9.00000000E+001    9.00000000E+001    2.74140631E-018    4.03633891E-018   -8.21124814E-007    2.83917184E-007   -3.23210910E+002   -9.81993836E+001   -9.81993836E+001
