##File Type: Far field
##File Format: 6
##Source: strip_dipole
##Date: 2022-08-25 18:46:36  
** File exported by Altair Feko - Solver (seq) Version 2019.1-338 from 2019-06-07

#Frequency:   2.99792458E+008
#Coordinate System: Spherical
#No. of Theta Samples: 1
#No. of Phi Samples: 91
#Result Type: Directivity
#No. of Header Lines: 1
#       "Theta"             "Phi"           "Re(Etheta)"       "Im(Etheta)"        "Re(Ephi)"         "Im(Ephi)"   "Directivity(Theta)" "Directivity(Phi)" "Directivity(Total)"
    9.00000000E+001    0.00000000E+000   -7.19122743E-021   -9.26355141E-021   -3.39542212E-001   -6.27626412E-001   -3.93517700E+002    2.16733266E+000    2.16733266E+000
    9.00000000E+001    1.00000000E+000   -3.51237610E-019   -6.89812814E-019   -3.22135916E-001   -6.36552817E-001   -3.57125796E+002    2.16534677E+000    2.16534677E+000
    9.00000000E+001    2.00000000E+000   -6.57480685E-019   -1.38819462E-018   -3.04361299E-001   -6.44703083E-001   -3.51173632E+002    2.15942805E+000    2.15942805E+000
    9.00000000E+001    3.00000000E+000   -9.25030547E-019   -2.10230054E-018   -2.86261717E-001   -6.52058573E-001   -3.47679072E+002    2.14957616E+000    2.14957616E+000
    9.00000000E+001    4.00000000E+000   -1.15313880E-018   -2.82997025E-018   -2.67881556E-001   -6.58603398E-001   -3.45198831E+002    2.13579060E+000    2.13579060E+000
    9.00000000E+001    5.00000000E+000   -1.34120187E-018   -3.56900225E-018   -2.49266029E-001   -6.64324471E-001   -3.43276956E+002    2.11807058E+000    2.11807058E+000
    9.00000000E+001    6.00000000E+000   -1.48876337E-018   -4.31716477E-018   -2.30460978E-001   -6.69211559E-001   -3.41709622E+002    2.09641513E+000    2.09641513E+000
    9.00000000E+001    7.00000000E+000   -1.59551570E-018   -5.07220679E-018   -2.11512665E-001   -6.73257308E-001   -3.40387872E+002    2.07082296E+000    2.07082296E+000
    9.00000000E+001    8.00000000E+000   -1.66130057E-018   -5.83186912E-018   -1.92467568E-001   -6.76457260E-001   -3.39246575E+002    2.04129252E+000    2.04129252E+000
    9.00000000E+001    9.00000000E+000   -1.68610879E-018   -6.59389551E-018   -1.73372170E-001   -6.78809846E-001   -3.38243671E+002    2.00782189E+000    2.00782189E+000
    9.00000000E+001    1.00000000E+001   -1.67007903E-018   -7.35604357E-018   -1.54272763E-001   -6.80316367E-001   -3.37350420E+002    1.97040883E+000    1.97040883E+000
    9.00000000E+001    1.10000000E+001   -1.61349587E-018   -8.11609553E-018   -1.35215237E-001   -6.80980957E-001   -3.36546303E+002    1.92905065E+000    1.92905065E+000
    9.00000000E+001    1.20000000E+001   -1.51678679E-018   -8.87186878E-018   -1.16244890E-001   -6.80810532E-001   -3.35816160E+002    1.88374422E+000    1.88374422E+000
    9.00000000E+001    1.30000000E+001   -1.38051856E-018   -9.62122603E-018   -9.74062359E-002   -6.79814725E-001   -3.35148469E+002    1.83448587E+000    1.83448587E+000
    9.00000000E+001    1.40000000E+001   -1.20539272E-018   -1.03620851E-017   -7.87428189E-002   -6.78005800E-001   -3.34534266E+002    1.78127136E+000    1.78127136E+000
    9.00000000E+001    1.50000000E+001   -9.92240349E-019   -1.10924281E-017   -6.02970402E-002   -6.75398560E-001   -3.33966439E+002    1.72409581E+000    1.72409581E+000
    9.00000000E+001    1.60000000E+001   -7.42016188E-019   -1.18103106E-017   -4.21099912E-002   -6.72010239E-001   -3.33439248E+002    1.66295357E+000    1.66295357E+000
    9.00000000E+001    1.70000000E+001   -4.55792101E-019   -1.25138692E-017   -2.42212982E-002   -6.67860383E-001   -3.32947994E+002    1.59783822E+000    1.59783822E+000
    9.00000000E+001    1.80000000E+001   -1.34749980E-019   -1.32013299E-017   -6.66897773E-003   -6.62970715E-001   -3.32488778E+002    1.52874241E+000    1.52874241E+000
    9.00000000E+001    1.90000000E+001    2.19825864E-019   -1.38710142E-017    1.05106953E-002   -6.57365003E-001   -3.32058329E+002    1.45565781E+000    1.45565781E+000
    9.00000000E+001    2.00000000E+001    6.06556739E-019   -1.45213460E-017    2.72833076E-002   -6.51068904E-001   -3.31653876E+002    1.37857494E+000    1.37857494E+000
    9.00000000E+001    2.10000000E+001    1.02397800E-018   -1.51508568E-017    4.36164142E-002   -6.44109811E-001   -3.31273048E+002    1.29748312E+000    1.29748312E+000
    9.00000000E+001    2.20000000E+001    1.47054778E-018   -1.57581902E-017    5.94796309E-002   -6.36516693E-001   -3.30913800E+002    1.21237029E+000    1.21237029E+000
    9.00000000E+001    2.30000000E+001    1.94465590E-018   -1.63421065E-017    7.48447136E-002   -6.28319926E-001   -3.30574358E+002    1.12322291E+000    1.12322291E+000
    9.00000000E+001    2.40000000E+001    2.44463309E-018   -1.69014852E-017    8.96856236E-002   -6.19551121E-001   -3.30253166E+002    1.03002578E+000    1.03002578E+000
    9.00000000E+001    2.50000000E+001    2.96876008E-018   -1.74353281E-017    1.03978578E-001   -6.10242958E-001   -3.29948858E+002    9.32761880E-001    9.32761880E-001
    9.00000000E+001    2.60000000E+001    3.51527697E-018   -1.79427603E-017    1.17702087E-001   -6.00429005E-001   -3.29660222E+002    8.31412215E-001    8.31412215E-001
    9.00000000E+001    2.70000000E+001    4.08239231E-018   -1.84230318E-017    1.30836976E-001   -5.90143551E-001   -3.29386181E+002    7.25955606E-001    7.25955606E-001
    9.00000000E+001    2.80000000E+001    4.66829232E-018   -1.88755170E-017    1.43366398E-001   -5.79421429E-001   -3.29125769E+002    6.16368493E-001    6.16368493E-001
    9.00000000E+001    2.90000000E+001    5.27114973E-018   -1.92997149E-017    1.55275826E-001   -5.68297848E-001   -3.28878118E+002    5.02624705E-001    5.02624705E-001
    9.00000000E+001    3.00000000E+001    5.88913255E-018   -1.96952470E-017    1.66553041E-001   -5.56808230E-001   -3.28642447E+002    3.84695224E-001    3.84695224E-001
    9.00000000E+001    3.10000000E+001    6.52041249E-018   -2.00618564E-017    1.77188099E-001   -5.44988043E-001   -3.28418044E+002    2.62547922E-001    2.62547922E-001
    9.00000000E+001    3.20000000E+001    7.16317307E-018   -2.03994046E-017    1.87173296E-001   -5.32872646E-001   -3.28204262E+002    1.36147277E-001    1.36147277E-001
    9.00000000E+001    3.30000000E+001    7.81561736E-018   -2.07078686E-017    1.96503113E-001   -5.20497143E-001   -3.28000512E+002    5.45406521E-003    5.45406521E-003
    9.00000000E+001    3.40000000E+001    8.47597536E-018   -2.09873376E-017    2.05174159E-001   -5.07896233E-001   -3.27806251E+002   -1.29574972E-001   -1.29574972E-001
    9.00000000E+001    3.50000000E+001    9.14251082E-018   -2.12380085E-017    2.13185099E-001   -4.95104078E-001   -3.27620982E+002   -2.68987494E-001   -2.68987494E-001
    9.00000000E+001    3.60000000E+001    9.81352772E-018   -2.14601818E-017    2.20536578E-001   -4.82154175E-001   -3.27444243E+002   -4.12835953E-001   -4.12835953E-001
    9.00000000E+001    3.70000000E+001    1.04873762E-017   -2.16542564E-017    2.27231132E-001   -4.69079236E-001   -3.27275609E+002   -5.61178025E-001   -5.61178025E-001
    9.00000000E+001    3.80000000E+001    1.11624578E-017   -2.18207243E-017    2.33273099E-001   -4.55911077E-001   -3.27114686E+002   -7.14077086E-001   -7.14077086E-001
    9.00000000E+001    3.90000000E+001    1.18372305E-017   -2.19601657E-017    2.38668522E-001   -4.42680519E-001   -3.26961105E+002   -8.71602718E-001   -8.71602718E-001
    9.00000000E+001    4.00000000E+001    1.25102133E-017   -2.20732424E-017    2.43425042E-001   -4.29417295E-001   -3.26814523E+002   -1.03383128E+000   -1.03383128E+000
    9.00000000E+001    4.10000000E+001    1.31799891E-017   -2.21606923E-017    2.47551796E-001   -4.16149969E-001   -3.26674619E+002   -1.20084652E+000   -1.20084652E+000
    9.00000000E+001    4.20000000E+001    1.38452092E-017   -2.22233235E-017    2.51059306E-001   -4.02905862E-001   -3.26541092E+002   -1.37274025E+000   -1.37274025E+000
    9.00000000E+001    4.30000000E+001    1.45045947E-017   -2.22620076E-017    2.53959369E-001   -3.89710991E-001   -3.26413658E+002   -1.54961311E+000   -1.54961311E+000
    9.00000000E+001    4.40000000E+001    1.51569397E-017   -2.22776740E-017    2.56264942E-001   -3.76590015E-001   -3.26292053E+002   -1.73157538E+000   -1.73157538E+000
    9.00000000E+001    4.50000000E+001    1.58011124E-017   -2.22713035E-017    2.57990030E-001   -3.63566191E-001   -3.26176023E+002   -1.91874788E+000   -1.91874788E+000
    9.00000000E+001    4.60000000E+001    1.64360562E-017   -2.22439219E-017    2.59149574E-001   -3.50661339E-001   -3.26065333E+002   -2.11126300E+000   -2.11126300E+000
    9.00000000E+001    4.70000000E+001    1.70607904E-017   -2.21965942E-017    2.59759339E-001   -3.37895817E-001   -3.25959756E+002   -2.30926583E+000   -2.30926583E+000
    9.00000000E+001    4.80000000E+001    1.76744106E-017   -2.21304186E-017    2.59835804E-001   -3.25288501E-001   -3.25859081E+002   -2.51291536E+000   -2.51291536E+000
    9.00000000E+001    4.90000000E+001    1.82760881E-017   -2.20465203E-017    2.59396053E-001   -3.12856777E-001   -3.25763104E+002   -2.72238595E+000   -2.72238595E+000
    9.00000000E+001    5.00000000E+001    1.88650692E-017   -2.19460464E-017    2.58457672E-001   -3.00616539E-001   -3.25671633E+002   -2.93786883E+000   -2.93786883E+000
    9.00000000E+001    5.10000000E+001    1.94406744E-017   -2.18301599E-017    2.57038646E-001   -2.88582193E-001   -3.25584485E+002   -3.15957389E+000   -3.15957389E+000
    9.00000000E+001    5.20000000E+001    2.00022965E-017   -2.17000347E-017    2.55157263E-001   -2.76766670E-001   -3.25501485E+002   -3.38773162E+000   -3.38773162E+000
    9.00000000E+001    5.30000000E+001    2.05493991E-017   -2.15568507E-017    2.52832020E-001   -2.65181441E-001   -3.25422467E+002   -3.62259539E+000   -3.62259539E+000
    9.00000000E+001    5.40000000E+001    2.10815144E-017   -2.14017887E-017    2.50081533E-001   -2.53836544E-001   -3.25347272E+002   -3.86444398E+000   -3.86444398E+000
    9.00000000E+001    5.50000000E+001    2.15982409E-017   -2.12360263E-017    2.46924456E-001   -2.42740610E-001   -3.25275747E+002   -4.11358441E+000   -4.11358441E+000
    9.00000000E+001    5.60000000E+001    2.20992405E-017   -2.10607336E-017    2.43379399E-001   -2.31900897E-001   -3.25207747E+002   -4.37035529E+000   -4.37035529E+000
    9.00000000E+001    5.70000000E+001    2.25842358E-017   -2.08770688E-017    2.39464859E-001   -2.21323328E-001   -3.25143133E+002   -4.63513059E+000   -4.63513059E+000
    9.00000000E+001    5.80000000E+001    2.30530074E-017   -2.06861755E-017    2.35199146E-001   -2.11012529E-001   -3.25081772E+002   -4.90832395E+000   -4.90832395E+000
    9.00000000E+001    5.90000000E+001    2.35053901E-017   -2.04891786E-017    2.30600326E-001   -2.00971875E-001   -3.25023537E+002   -5.19039377E+000   -5.19039377E+000
    9.00000000E+001    6.00000000E+001    2.39412699E-017   -2.02871814E-017    2.25686164E-001   -1.91203536E-001   -3.24968306E+002   -5.48184902E+000   -5.48184902E+000
    9.00000000E+001    6.10000000E+001    2.43605806E-017   -2.00812632E-017    2.20474068E-001   -1.81708523E-001   -3.24915961E+002   -5.78325609E+000   -5.78325609E+000
    9.00000000E+001    6.20000000E+001    2.47633003E-017   -1.98724764E-017    2.14981051E-001   -1.72486742E-001   -3.24866391E+002   -6.09524679E+000   -6.09524679E+000
    9.00000000E+001    6.30000000E+001    2.51494478E-017   -1.96618446E-017    2.09223684E-001   -1.63537040E-001   -3.24819489E+002   -6.41852783E+000   -6.41852783E+000
    9.00000000E+001    6.40000000E+001    2.55190789E-017   -1.94503604E-017    2.03218065E-001   -1.54857259E-001   -3.24775152E+002   -6.75389207E+000   -6.75389207E+000
    9.00000000E+001    6.50000000E+001    2.58722831E-017   -1.92389840E-017    1.96979791E-001   -1.46444290E-001   -3.24733282E+002   -7.10223196E+000   -7.10223196E+000
    9.00000000E+001    6.60000000E+001    2.62091799E-017   -1.90286417E-017    1.90523931E-001   -1.38294123E-001   -3.24693786E+002   -7.46455569E+000   -7.46455569E+000
    9.00000000E+001    6.70000000E+001    2.65299152E-017   -1.88202243E-017    1.83865011E-001   -1.30401896E-001   -3.24656574E+002   -7.84200679E+000   -7.84200679E+000
    9.00000000E+001    6.80000000E+001    2.68346578E-017   -1.86145868E-017    1.77016994E-001   -1.22761953E-001   -3.24621561E+002   -8.23588812E+000   -8.23588812E+000
    9.00000000E+001    6.90000000E+001    2.71235962E-017   -1.84125468E-017    1.69993277E-001   -1.15367889E-001   -3.24588666E+002   -8.64769133E+000   -8.64769133E+000
    9.00000000E+001    7.00000000E+001    2.73969352E-017   -1.82148848E-017    1.62806683E-001   -1.08212601E-001   -3.24557810E+002   -9.07913359E+000   -9.07913359E+000
    9.00000000E+001    7.10000000E+001    2.76548924E-017   -1.80223429E-017    1.55469458E-001   -1.01288336E-001   -3.24528921E+002   -9.53220368E+000   -9.53220368E+000
    9.00000000E+001    7.20000000E+001    2.78976955E-017   -1.78356249E-017    1.47993280E-001   -9.45867390E-002   -3.24501930E+002   -1.00092206E+001   -1.00092206E+001
    9.00000000E+001    7.30000000E+001    2.81255791E-017   -1.76553963E-017    1.40389261E-001   -8.80988949E-002   -3.24476769E+002   -1.05129088E+001   -1.05129088E+001
    9.00000000E+001    7.40000000E+001    2.83387816E-017   -1.74822839E-017    1.32667960E-001   -8.18153751E-002   -3.24453378E+002   -1.10464966E+001   -1.10464966E+001
    9.00000000E+001    7.50000000E+001    2.85375427E-017   -1.73168762E-017    1.24839395E-001   -7.57262781E-002   -3.24431697E+002   -1.16138456E+001   -1.16138456E+001
    9.00000000E+001    7.60000000E+001    2.87221009E-017   -1.71597234E-017    1.16913064E-001   -6.98212689E-002   -3.24411672E+002   -1.22196261E+001   -1.22196261E+001
    9.00000000E+001    7.70000000E+001    2.88926907E-017   -1.70113375E-017    1.08897960E-001   -6.40896180E-002   -3.24393252E+002   -1.28695561E+001   -1.28695561E+001
    9.00000000E+001    7.80000000E+001    2.90495405E-017   -1.68721928E-017    1.00802596E-001   -5.85202369E-002   -3.24376389E+002   -1.35707377E+001   -1.35707377E+001
    9.00000000E+001    7.90000000E+001    2.91928704E-017   -1.67427262E-017    9.26350316E-002   -5.31017133E-002   -3.24361039E+002   -1.43321388E+001   -1.43321388E+001
    9.00000000E+001    8.00000000E+001    2.93228900E-017   -1.66233375E-017    8.44028957E-002   -4.78223432E-002   -3.24347161E+002   -1.51653068E+001   -1.51653068E+001
    9.00000000E+001    8.10000000E+001    2.94397970E-017   -1.65143898E-017    7.61134200E-002   -4.26701623E-002   -3.24334720E+002   -1.60854578E+001   -1.60854578E+001
    9.00000000E+001    8.20000000E+001    2.95437750E-017   -1.64162099E-017    6.77734679E-002   -3.76329755E-002   -3.24323681E+002   -1.71132122E+001   -1.71132122E+001
    9.00000000E+001    8.30000000E+001    2.96349923E-017   -1.63290888E-017    5.93895674E-002   -3.26983845E-002   -3.24314015E+002   -1.82774955E+001   -1.82774955E+001
    9.00000000E+001    8.40000000E+001    2.97136003E-017   -1.62532818E-017    5.09679456E-002   -2.78538146E-002   -3.24305695E+002   -1.96206912E+001   -1.96206912E+001
    9.00000000E+001    8.50000000E+001    2.97797326E-017   -1.61890091E-017    4.25145633E-002   -2.30865396E-002   -3.24298699E+002   -2.12085413E+001   -2.12085413E+001
    9.00000000E+001    8.60000000E+001    2.98335035E-017   -1.61364560E-017    3.40351522E-002   -1.83837062E-002   -3.24293008E+002   -2.31512455E+001   -2.31512455E+001
    9.00000000E+001    8.70000000E+001    2.98750077E-017   -1.60957732E-017    2.55352517E-002   -1.37323568E-002   -3.24288605E+002   -2.56555521E+001   -2.56555521E+001
    9.00000000E+001    8.80000000E+001    2.99043189E-017   -1.60670772E-017    1.70202472E-002   -9.11945183E-003   -3.24285479E+002   -2.91862050E+001   -2.91862050E+001
    9.00000000E+001    8.90000000E+001    2.99214900E-017   -1.60504501E-017    8.49540864E-003   -4.53189128E-003   -3.24283620E+002   -3.52303178E+001   -3.52303178E+001
    9.00000000E+001    9.00000000E+001    2.99265520E-017   -1.60459402E-017   -3.40704037E-005    4.34642994E-005   -3.24283025E+002   -8.00586742E+001   -8.00586742E+001
